{
  "questions": [
    {
      "id": 1,
      "question": "What is 2 + 2?",
      "answer": "4",
      "needs_retrieval": false,
      "relevant_doc_ids": []
    },
    {
      "id": 2,
      "question": "What is the capital of France?",
      "answer": "Paris",
      "needs_retrieval": false,
      "relevant_doc_ids": []
    },
    {
      "id": 3,
      "question": "What is at the center of our Solar System?",
      "answer": "The Sun is at the center of our Solar System.",
      "needs_retrieval": true,
      "relevant_doc_ids": [0]
    },
    {
      "id": 4,
      "question": "What is water composed of?",
      "answer": "Water is a transparent, tasteless, odorless, and nearly colorless chemical substance.",
      "needs_retrieval": true,
      "relevant_doc_ids": [1]
    },
    {
      "id": 5,
      "question": "What color is the sky?",
      "answer": "Blue",
      "needs_retrieval": false,
      "relevant_doc_ids": []
    },
    {
      "id": 6,
      "question": "When was the Great Wall of China first built?",
      "answer": "Several walls were built from as early as the 7th century BC.",
      "needs_retrieval": true,
      "relevant_doc_ids": [2]
    },
    {
      "id": 7,
      "question": "What does photosynthesis produce?",
      "answer": "Photosynthesis produces glucose and oxygen from carbon dioxide and water.",
      "needs_retrieval": true,
      "relevant_doc_ids": [3]
    },
    {
      "id": 8,
      "question": "How many days are in a week?",
      "answer": "7",
      "needs_retrieval": false,
      "relevant_doc_ids": []
    },
    {
      "id": 9,
      "question": "How many countries share the Amazon Rainforest?",
      "answer": "The Amazon Rainforest includes territory belonging to nine nations.",
      "needs_retrieval": true,
      "relevant_doc_ids": [4]
    },
    {
      "id": 10,
      "question": "What is the shape of DNA?",
      "answer": "DNA forms a double helix structure.",
      "needs_retrieval": true,
      "relevant_doc_ids": [5]
    },
    {
      "id": 11,
      "question": "What is 10 times 10?",
      "answer": "100",
      "needs_retrieval": false,
      "relevant_doc_ids": []
    },
    {
      "id": 12,
      "question": "What is the height of Mount Everest?",
      "answer": "Mount Everest has an elevation of 8,848.86 meters.",
      "needs_retrieval": true,
      "relevant_doc_ids": [6]
    },
    {
      "id": 13,
      "question": "Which ocean is the largest?",
      "answer": "The Pacific Ocean is the largest and deepest of Earth's oceanic divisions.",
      "needs_retrieval": true,
      "relevant_doc_ids": [7]
    },
    {
      "id": 14,
      "question": "What season comes after winter?",
      "answer": "Spring",
      "needs_retrieval": false,
      "relevant_doc_ids": []
    },
    {
      "id": 15,
      "question": "What is the relationship between electricity and magnetism?",
      "answer": "Electricity is related to magnetism as part of electromagnetism, described by Maxwell's equations.",
      "needs_retrieval": true,
      "relevant_doc_ids": [8]
    },
    {
      "id": 16,
      "question": "What are the main parts of the human brain?",
      "answer": "The brain consists of the cerebrum, the brainstem and the cerebellum.",
      "needs_retrieval": true,
      "relevant_doc_ids": [9]
    },
    {
      "id": 17,
      "question": "How many continents are there?",
      "answer": "7",
      "needs_retrieval": false,
      "relevant_doc_ids": []
    },
    {
      "id": 18,
      "question": "What causes ocean tides?",
      "answer": "The Moon's gravity causes the tides of the oceans.",
      "needs_retrieval": true,
      "relevant_doc_ids": [10]
    },
    {
      "id": 19,
      "question": "What powered the Industrial Revolution?",
      "answer": "The Industrial Revolution used water power and steam power along with machine tools.",
      "needs_retrieval": true,
      "relevant_doc_ids": [11]
    },
    {
      "id": 20,
      "question": "What is the opposite of hot?",
      "answer": "Cold",
      "needs_retrieval": false,
      "relevant_doc_ids": []
    },
    {
      "id": 21,
      "question": "What are antibiotics used for?",
      "answer": "Antibiotics are used for fighting bacterial infections and preventing such infections.",
      "needs_retrieval": true,
      "relevant_doc_ids": [12]
    },
    {
      "id": 22,
      "question": "What protocol does the Internet use?",
      "answer": "The Internet uses the Internet protocol suite to communicate between networks and devices.",
      "needs_retrieval": true,
      "relevant_doc_ids": [13]
    },
    {
      "id": 23,
      "question": "What is the square root of 16?",
      "answer": "4",
      "needs_retrieval": false,
      "relevant_doc_ids": []
    },
    {
      "id": 24,
      "question": "What has been the main driver of climate change since 1800s?",
      "answer": "Human activities have been the main driver of climate change since the 1800s.",
      "needs_retrieval": true,
      "relevant_doc_ids": [14]
    },
    {
      "id": 25,
      "question": "What does the Pythagorean theorem describe?",
      "answer": "The Pythagorean theorem states that in a right-angled triangle, a² + b² = c².",
      "needs_retrieval": true,
      "relevant_doc_ids": [15]
    },
    {
      "id": 26,
      "question": "How many hours are in a day?",
      "answer": "24",
      "needs_retrieval": false,
      "relevant_doc_ids": []
    },
    {
      "id": 27,
      "question": "What is the average distance from Earth to Moon?",
      "answer": "The Moon orbits Earth at an average distance of 384,400 km.",
      "needs_retrieval": true,
      "relevant_doc_ids": [16]
    },
    {
      "id": 28,
      "question": "When was the word vitamin coined?",
      "answer": "The word vitamin was coined in 1912.",
      "needs_retrieval": true,
      "relevant_doc_ids": [17]
    },
    {
      "id": 29,
      "question": "What color is grass?",
      "answer": "Green",
      "needs_retrieval": false,
      "relevant_doc_ids": []
    },
    {
      "id": 30,
      "question": "When did the French Revolution end?",
      "answer": "The French Revolution ended with the formation of the French Consulate in November 1799.",
      "needs_retrieval": true,
      "relevant_doc_ids": [18]
    },
    {
      "id": 31,
      "question": "What do plants use carbon dioxide for?",
      "answer": "Plants use carbon dioxide during photosynthesis to make sugars.",
      "needs_retrieval": true,
      "relevant_doc_ids": [19]
    },
    {
      "id": 32,
      "question": "What is 50 divided by 5?",
      "answer": "10",
      "needs_retrieval": false,
      "relevant_doc_ids": []
    },
    {
      "id": 33,
      "question": "What is the exact speed of light?",
      "answer": "The speed of light in vacuum is exactly 299,792,458 metres per second.",
      "needs_retrieval": true,
      "relevant_doc_ids": [20]
    },
    {
      "id": 34,
      "question": "What characterizes mammals?",
      "answer": "Mammals are characterized by mammary glands, a neocortex, fur or hair, and three middle ear bones.",
      "needs_retrieval": true,
      "relevant_doc_ids": [21]
    },
    {
      "id": 35,
      "question": "How many months are in a year?",
      "answer": "12",
      "needs_retrieval": false,
      "relevant_doc_ids": []
    },
    {
      "id": 36,
      "question": "Who designed the Eiffel Tower?",
      "answer": "The Eiffel Tower was designed by engineer Gustave Eiffel's company.",
      "needs_retrieval": true,
      "relevant_doc_ids": [22]
    },
    {
      "id": 37,
      "question": "What causes earthquakes?",
      "answer": "Earthquakes are caused by the sudden release of energy in the Earth's lithosphere.",
      "needs_retrieval": true,
      "relevant_doc_ids": [23]
    },
    {
      "id": 38,
      "question": "What is the boiling point of water in Celsius?",
      "answer": "100 degrees Celsius",
      "needs_retrieval": false,
      "relevant_doc_ids": []
    },
    {
      "id": 39,
      "question": "What does the periodic table organize elements by?",
      "answer": "The periodic table organizes elements by atomic number, electron configuration, and chemical properties.",
      "needs_retrieval": true,
      "relevant_doc_ids": [24]
    },
    {
      "id": 40,
      "question": "How do neurons communicate?",
      "answer": "Neurons communicate through electrical and chemical signals via specialized connections called synapses.",
      "needs_retrieval": true,
      "relevant_doc_ids": [25]
    },
    {
      "id": 41,
      "question": "What comes after Monday?",
      "answer": "Tuesday",
      "needs_retrieval": false,
      "relevant_doc_ids": []
    },
    {
      "id": 42,
      "question": "Where did the Renaissance begin?",
      "answer": "The Renaissance began in Italy and spread to the rest of Europe.",
      "needs_retrieval": true,
      "relevant_doc_ids": [26]
    },
    {
      "id": 43,
      "question": "What is the atomic number of oxygen?",
      "answer": "Oxygen has atomic number 8.",
      "needs_retrieval": true,
      "relevant_doc_ids": [27]
    },
    {
      "id": 44,
      "question": "Is the sun a star or planet?",
      "answer": "Star",
      "needs_retrieval": false,
      "relevant_doc_ids": []
    },
    {
      "id": 45,
      "question": "How long is the Nile River?",
      "answer": "The Nile is approximately 6,650 km long.",
      "needs_retrieval": true,
      "relevant_doc_ids": [28]
    },
    {
      "id": 46,
      "question": "How do vaccines work?",
      "answer": "Vaccines stimulate the body's adaptive immunity to help prevent disease.",
      "needs_retrieval": true,
      "relevant_doc_ids": [29]
    },
    {
      "id": 47,
      "question": "What is 7 minus 3?",
      "answer": "4",
      "needs_retrieval": false,
      "relevant_doc_ids": []
    },
    {
      "id": 48,
      "question": "What is a black hole?",
      "answer": "Black holes are regions of spacetime where gravity is so strong that nothing can escape.",
      "needs_retrieval": true,
      "relevant_doc_ids": [30]
    },
    {
      "id": 49,
      "question": "What is the drainage basin area of the Amazon River?",
      "answer": "The Amazon River has a drainage basin of approximately 7,000,000 km².",
      "needs_retrieval": true,
      "relevant_doc_ids": [31]
    },
    {
      "id": 50,
      "question": "How many legs does a spider have?",
      "answer": "8",
      "needs_retrieval": false,
      "relevant_doc_ids": []
    },
    {
      "id": 51,
      "question": "What are proteins made of?",
      "answer": "Proteins are made of one or more long chains of amino acid residues.",
      "needs_retrieval": true,
      "relevant_doc_ids": [32]
    },
    {
      "id": 52,
      "question": "When did the Wright Brothers make their first flight?",
      "answer": "The Wright Brothers made their first flight on December 17, 1903.",
      "needs_retrieval": true,
      "relevant_doc_ids": [33]
    },
    {
      "id": 53,
      "question": "What is 3 squared?",
      "answer": "9",
      "needs_retrieval": false,
      "relevant_doc_ids": []
    },
    {
      "id": 54,
      "question": "What do tectonic plates form?",
      "answer": "Tectonic plates shape Earth's surface features including mountains and oceanic trenches.",
      "needs_retrieval": true,
      "relevant_doc_ids": [34]
    },
    {
      "id": 55,
      "question": "What is chlorophyll used for?",
      "answer": "Chlorophyll is essential in photosynthesis.",
      "needs_retrieval": true,
      "relevant_doc_ids": [35]
    },
    {
      "id": 56,
      "question": "What is the freezing point of water?",
      "answer": "0 degrees Celsius",
      "needs_retrieval": false,
      "relevant_doc_ids": []
    },
    {
      "id": 57,
      "question": "What territories did the Roman Empire include?",
      "answer": "The Roman Empire included territories around the Mediterranean Sea in Europe, Northern Africa, and Western Asia.",
      "needs_retrieval": true,
      "relevant_doc_ids": [36]
    },
    {
      "id": 58,
      "question": "What do mitochondria produce?",
      "answer": "Mitochondria generate most of the cell's supply of ATP.",
      "needs_retrieval": true,
      "relevant_doc_ids": [37]
    },
    {
      "id": 59,
      "question": "What is 15 plus 5?",
      "answer": "20",
      "needs_retrieval": false,
      "relevant_doc_ids": []
    },
    {
      "id": 60,
      "question": "What is the total area of the Atlantic Ocean?",
      "answer": "The Atlantic Ocean has a total area of about 106,460,000 km².",
      "needs_retrieval": true,
      "relevant_doc_ids": [38]
    },
    {
      "id": 61,
      "question": "What is nuclear fusion?",
      "answer": "Nuclear fusion is a reaction where atomic nuclei combine to form different nuclei and release energy.",
      "needs_retrieval": true,
      "relevant_doc_ids": [39]
    },
    {
      "id": 62,
      "question": "What planet do we live on?",
      "answer": "Earth",
      "needs_retrieval": false,
      "relevant_doc_ids": []
    },
    {
      "id": 63,
      "question": "What is the origin of the word democracy?",
      "answer": "The term democracy is derived from Greek.",
      "needs_retrieval": true,
      "relevant_doc_ids": [40]
    },
    {
      "id": 64,
      "question": "What can cause tsunamis?",
      "answer": "Earthquakes, volcanic eruptions and underwater explosions can generate tsunamis.",
      "needs_retrieval": true,
      "relevant_doc_ids": [41]
    },
    {
      "id": 65,
      "question": "How many wheels does a bicycle have?",
      "answer": "2",
      "needs_retrieval": false,
      "relevant_doc_ids": []
    },
    {
      "id": 66,
      "question": "What is the size of the Sahara Desert?",
      "answer": "The Sahara covers approximately 9.2 million km².",
      "needs_retrieval": true,
      "relevant_doc_ids": [42]
    },
    {
      "id": 67,
      "question": "What does insulin regulate?",
      "answer": "Insulin regulates the metabolism of carbohydrates, fats and protein.",
      "needs_retrieval": true,
      "relevant_doc_ids": [43]
    },
    {
      "id": 68,
      "question": "What is 100 minus 25?",
      "answer": "75",
      "needs_retrieval": false,
      "relevant_doc_ids": []
    },
    {
      "id": 69,
      "question": "What is the Milky Way?",
      "answer": "The Milky Way is the galaxy that includes the Solar System.",
      "needs_retrieval": true,
      "relevant_doc_ids": [44]
    },
    {
      "id": 70,
      "question": "Where are most volcanoes found?",
      "answer": "Most volcanoes are found along tectonic plate boundaries.",
      "needs_retrieval": true,
      "relevant_doc_ids": [45]
    },
    {
      "id": 71,
      "question": "How many sides does a triangle have?",
      "answer": "3",
      "needs_retrieval": false,
      "relevant_doc_ids": []
    },
    {
      "id": 72,
      "question": "When was the United Nations founded?",
      "answer": "The United Nations was founded in 1945.",
      "needs_retrieval": true,
      "relevant_doc_ids": [46]
    },
    {
      "id": 73,
      "question": "What is RNA?",
      "answer": "RNA is a polymeric molecule essential for coding, decoding, regulation and expression of genes.",
      "needs_retrieval": true,
      "relevant_doc_ids": [47]
    },
    {
      "id": 74,
      "question": "What is the largest country in the world?",
      "answer": "Russia",
      "needs_retrieval": false,
      "relevant_doc_ids": []
    },
    {
      "id": 75,
      "question": "What peaks are in the Himalayas?",
      "answer": "The Himalayas are home to some of the planet's highest peaks, including Mount Everest.",
      "needs_retrieval": true,
      "relevant_doc_ids": [48]
    },
    {
      "id": 76,
      "question": "What are coral reefs sometimes called?",
      "answer": "Coral reefs are sometimes called the rainforests of the sea.",
      "needs_retrieval": true,
      "relevant_doc_ids": [49]
    },
    {
      "id": 77,
      "question": "What is 8 times 8?",
      "answer": "64",
      "needs_retrieval": false,
      "relevant_doc_ids": []
    },
    {
      "id": 78,
      "question": "How many indigenous territories are in the Amazon?",
      "answer": "There are 3,344 formally acknowledged indigenous territories in the Amazon.",
      "needs_retrieval": true,
      "relevant_doc_ids": [4]
    },
    {
      "id": 79,
      "question": "What is Einstein's famous equation?",
      "answer": "E = mc²",
      "needs_retrieval": true,
      "relevant_doc_ids": [20]
    },
    {
      "id": 80,
      "question": "What is the chemical symbol for water?",
      "answer": "H2O",
      "needs_retrieval": false,
      "relevant_doc_ids": []
    },
    {
      "id": 81,
      "question": "What border runs across Mount Everest's summit?",
      "answer": "The China-Nepal border runs across Mount Everest's summit point.",
      "needs_retrieval": true,
      "relevant_doc_ids": [6]
    },
    {
      "id": 82,
      "question": "What is the function of the cerebellum?",
      "answer": "The cerebellum is part of the brain that controls body activities.",
      "needs_retrieval": true,
      "relevant_doc_ids": [9]
    },
    {
      "id": 83,
      "question": "What comes after 99?",
      "answer": "100",
      "needs_retrieval": false,
      "relevant_doc_ids": []
    },
    {
      "id": 84,
      "question": "Who united the Great Wall sections?",
      "answer": "Qin Shi Huang joined together selective stretches of the walls.",
      "needs_retrieval": true,
      "relevant_doc_ids": [2]
    },
    {
      "id": 85,
      "question": "What are the deserts larger than the Sahara?",
      "answer": "Antarctica and the Arctic are larger than the Sahara.",
      "needs_retrieval": true,
      "relevant_doc_ids": [42]
    },
    {
      "id": 86,
      "question": "How many planets are in our solar system?",
      "answer": "8",
      "needs_retrieval": false,
      "relevant_doc_ids": []
    },
    {
      "id": 87,
      "question": "What was the Wright Brothers' aircraft called?",
      "answer": "Their aircraft was called the Wright Flyer.",
      "needs_retrieval": true,
      "relevant_doc_ids": [33]
    },
    {
      "id": 88,
      "question": "What is the third-most abundant element in the universe?",
      "answer": "Oxygen is the third-most abundant element in the universe by mass.",
      "needs_retrieval": true,
      "relevant_doc_ids": [27]
    },
    {
      "id": 89,
      "question": "What is half of 50?",
      "answer": "25",
      "needs_retrieval": false,
      "relevant_doc_ids": []
    },
    {
      "id": 90,
      "question": "How many member states founded the United Nations?",
      "answer": "The United Nations was founded with 51 member states.",
      "needs_retrieval": true,
      "relevant_doc_ids": [46]
    },
    {
      "id": 91,
      "question": "What holds coral reefs together?",
      "answer": "Coral reefs are held together by calcium carbonate.",
      "needs_retrieval": true,
      "relevant_doc_ids": [49]
    },
    {
      "id": 92,
      "question": "What direction is up?",
      "answer": "Opposite of down",
      "needs_retrieval": false,
      "relevant_doc_ids": []
    },
    {
      "id": 93,
      "question": "What is the event horizon of a black hole?",
      "answer": "The event horizon is the boundary from which nothing can escape from a black hole.",
      "needs_retrieval": true,
      "relevant_doc_ids": [30]
    },
    {
      "id": 94,
      "question": "What do proteins catalyze?",
      "answer": "Proteins catalyze metabolic reactions and DNA replication.",
      "needs_retrieval": true,
      "relevant_doc_ids": [32]
    },
    {
      "id": 95,
      "question": "What year comes after 2024?",
      "answer": "2025",
      "needs_retrieval": false,
      "relevant_doc_ids": []
    },
    {
      "id": 96,
      "question": "What is the main source of energy for life on Earth?",
      "answer": "The Sun is the most important source of energy for life on Earth.",
      "needs_retrieval": true,
      "relevant_doc_ids": [0]
    },
    {
      "id": 97,
      "question": "What centuries did the Renaissance cover?",
      "answer": "The Renaissance covered the 15th and 16th centuries.",
      "needs_retrieval": true,
      "relevant_doc_ids": [26]
    },
    {
      "id": 98,
      "question": "Which is larger, an elephant or a mouse?",
      "answer": "Elephant",
      "needs_retrieval": false,
      "relevant_doc_ids": []
    },
    {
      "id": 99,
      "question": "Where is the Eiffel Tower located?",
      "answer": "The Eiffel Tower is located on the Champ de Mars in Paris, France.",
      "needs_retrieval": true,
      "relevant_doc_ids": [22]
    },
    {
      "id": 100,
      "question": "What types of networks make up the Internet?",
      "answer": "The Internet consists of private, public, academic, business, and government networks.",
      "needs_retrieval": true,
      "relevant_doc_ids": [13]
    }
  ]
}
